/*--------------------------------*- C++ -*----------------------------------*\
| =========                 |                                                 |
| \\      /  F ield         | OpenFOAM: The Open Source CFD Toolbox           |
|  \\    /   O peration     | Version:  2.4.0                                 |
|   \\  /    A nd           | Web:      www.OpenFOAM.org                      |
|    \\/     M anipulation  |                                                 |
\*---------------------------------------------------------------------------*/
FoamFile
{
    version     2.0;
    format      ascii;
    class       volScalarField;
    location    "0";
    object      T;
}
// * * * * * * * * * * * * * * * * * * * * * * * * * * * * * * * * * * * * * //
#include "../pressure"

dimensions      [0 0 0 0 0 0 0];

internalField   uniform 0.0;

boundaryField
{
    #include "${WM_PROJECT_DIR}/etc/caseDicts/setConstraintTypes"
    ".*(Y|Z)"
    {
        type            $lateralbcter;
        value           uniform $lateralbcvalter;
    }
    minX
    {
        type            $inletbcter;
        value           uniform $inletbcvalter;
    }
    maxX
    {
        type            $outletbcter;
        value           uniform $outletbcvalter;
    }
    pores
    {
        type            $poresbcter;
        value           uniform $poresbcvalter;
    }
}


// ************************************************************************* //
