/*--------------------------------*- C++ -*----------------------------------*\
| =========                 |                                                 |
| \\      /  F ield         | OpenFOAM: The Open Source CFD Toolbox           |
|  \\    /   O peration     | Version:  2.4.0                                 |
|   \\  /    A nd           | Web:      www.OpenFOAM.org                      |
|    \\/     M anipulation  |                                                 |
\*---------------------------------------------------------------------------*/
FoamFile
{
    version     2.0;
    format      ascii;
    class       volScalarField;
    location    "0";
    object      p;
}
// * * * * * * * * * * * * * * * * * * * * * * * * * * * * * * * * * * * * * //

dimensions      [0 2 -2 0 0 0 0];

#include "../pressure"

internalField   uniform 0.0;

boundaryField
{
    #include "${WM_PROJECT_DIR}/etc/caseDicts/setConstraintTypes"
    ".*Y"
    {
        type            symmetryPlane;
    }
    minX
    {
        type            totalPressure;
        rho             none;
        psi             none;
        gamma           1;
        p0              uniform $inletp;
        value           uniform $inletp;
    }
    maxX
    {
        type            totalPressure;
        rho             none;
        psi             none;
        gamma           1;
        p0              uniform $outletp;
        value           uniform $outletp;
    }
    pores
    {
        type            zeroGradient;
    }
    newZ
    {
	type     empty;
    }
}


// ************************************************************************* //
